
84 atoms
2 atom types
   0.0000000000    9.5784100000 xlo xhi
   0.0000000000   11.2564630383 ylo yhi
   0.0000000000   19.9461333287 zlo zhi
  -0.0000000000    0.0000000001    0.0000000000 xy xz yz

Atoms # atomic

     1      1    0.3253482433    6.8939026962    1.9497492332
     2      1    5.1145532433    4.3716215359    0.4074774634
     3      1    5.1145532433    3.7879521574    3.4920210229
     4      1    5.1145532433    3.2042827788    6.5765645823
     5      1    5.1145532433    2.6206134003    9.6611081418
     6      1    0.3253482433    6.3102331489    5.0342927926
     7      1    0.3253482433    5.7265637591    8.1188363521
     8      1    1.5906849395    4.7404884342    1.5422717897
     9      1    6.3798899395    2.2182072738   -0.0000000000
    10      1    6.3798899396    1.6345378953    3.0845435595
    11      1    6.3798899396    1.0508685167    6.1690871189
    12      1    6.3798899396    0.4671991382    9.2536306784
    13      1    1.5906849395    4.1568188755    4.6268153492
    14      1    1.5906849396    3.5731494970    7.7113589086
    15      1    2.8560216358    6.8939026962    1.9497492332
    16      1    7.6452266358    4.3716215359    0.4074774634
    17      1    7.6452266358    3.7879521574    3.4920210229
    18      1    7.6452266358    3.2042827788    6.5765645823
    19      1    7.6452266358    2.6206134003    9.6611081418
    20      1    2.8560216358    6.3102331489    5.0342927926
    21      1    2.8560216358    5.7265637591    8.1188363521
    22      1    0.3253482433   12.5221342154    1.9497492332
    23      1    5.1145532433    9.9998530550    0.4074774634
    24      1    5.1145532433    9.4161836765    3.4920210229
    25      1    5.1145532433    8.8325142980    6.5765645823
    26      1    5.1145532433    8.2488449194    9.6611081418
    27      1    0.3253482433   11.9384646680    5.0342927926
    28      1    0.3253482433   11.3547952782    8.1188363521
    29      1    1.5906849395   10.3687199533    1.5422717897
    30      1    6.3798899395    7.8464387929   -0.0000000000
    31      1    6.3798899395    7.2627694144    3.0845435595
    32      1    6.3798899396    6.6791000359    6.1690871189
    33      1    6.3798899396    6.0954306573    9.2536306784
    34      1    1.5906849395    9.7850503947    4.6268153492
    35      1    1.5906849395    9.2013810161    7.7113589086
    36      1    2.8560216358   12.5221342154    1.9497492332
    37      1    7.6452266358    9.9998530550    0.4074774634
    38      1    7.6452266358    9.4161836765    3.4920210229
    39      1    7.6452266358    8.8325142980    6.5765645823
    40      1    7.6452266358    8.2488449194    9.6611081418
    41      1    2.8560216358   11.9384646680    5.0342927926
    42      1    2.8560216358   11.3547952782    8.1188363521
    43      2    3.2019171777    5.5397265654    0.1736361569
    44      2    3.2019171777    4.9560571869    3.2581797164
    45      2    7.9911221777    2.4337760265    1.7159079267
    46      2    7.9911221777    1.8501066480    4.8004514862
    47      2    7.9911221777    1.2664372695    7.8849950456
    48      2    3.2019171777    4.3723876395    6.3427232759
    49      2    3.2019171777    3.7887182497    9.4272668353
    50      2    1.5906849395    8.2818034267    0.6925026424
    51      2    1.5906849395    7.6981340482    3.7770462018
    52      2    6.3798899395    5.1758528991    2.2347744321
    53      2    6.3798899396    4.5921835205    5.3193179915
    54      2    6.3798899396    4.0085141308    8.4038615510
    55      2    1.5906849395    7.1144645008    6.8615897613
    56      2    1.5906849396    6.5307951223    9.9461333207
    57      2   -0.0205472986    5.5397265654    0.1736361569
    58      2   -0.0205472986    4.9560571869    3.2581797164
    59      2    4.7686577014    2.4337760265    1.7159079267
    60      2    4.7686577014    1.8501066480    4.8004514862
    61      2    4.7686577014    1.2664372695    7.8849950456
    62      2   -0.0205472986    4.3723876395    6.3427232759
    63      2   -0.0205472986    3.7887182497    9.4272668353
    64      2    3.2019171777   11.1679580845    0.1736361569
    65      2    3.2019171777   10.5842887060    3.2581797164
    66      2    7.9911221777    8.0620075457    1.7159079267
    67      2    7.9911221777    7.4783381671    4.8004514862
    68      2    7.9911221777    6.8946687886    7.8849950456
    69      2    3.2019171777   10.0006191586    6.3427232759
    70      2    3.2019171777    9.4169497689    9.4272668353
    71      2    1.5906849395   13.9100349458    0.6925026424
    72      2    1.5906849395   13.3263655673    3.7770462018
    73      2    6.3798899395   10.8040844182    2.2347744321
    74      2    6.3798899396   10.2204150397    5.3193179915
    75      2    6.3798899396    9.6367456499    8.4038615510
    76      2    1.5906849395   12.7426960199    6.8615897613
    77      2    1.5906849396   12.1590266414    9.9461333207
    78      2   -0.0205472986   11.1679580845    0.1736361569
    79      2   -0.0205472986   10.5842887060    3.2581797164
    80      2    4.7686577014    8.0620075457    1.7159079267
    81      2    4.7686577014    7.4783381671    4.8004514862
    82      2    4.7686577014    6.8946687886    7.8849950456
    83      2   -0.0205472986   10.0006191586    6.3427232759
    84      2   -0.0205472986    9.4169497689    9.4272668353
